unknown system
 1
8    0.000000    0.000000
0.000000    8    0.000000
0.000000    0.000000    8
H
512
Direct
0.500526	0.072273	0.766704
0.104345	0.549733	0.373076
0.955774	0.957688	0.473396
0.561022	0.181027	0.243602
0.602112	0.597818	0.307240
0.779327	0.877696	0.032190
0.972955	0.635301	0.009532
0.671356	0.971775	0.020847
0.003033	0.113021	0.216645
0.718777	0.121039	0.643615
0.484163	0.913234	0.242836
0.883036	0.067084	0.656664
0.724044	0.220502	0.509493
0.052680	0.014872	0.803391
0.957887	0.152344	0.451046
0.895466	0.050607	0.918945
0.663029	0.415963	0.805041
0.178214	0.471880	0.884354
0.883926	0.988894	0.794290
0.149117	0.095451	0.299477
0.336630	0.563413	0.528815
0.188978	0.195231	0.565907
0.010380	0.178913	0.760397
0.858150	0.287484	0.849780
0.475842	0.410187	0.801147
0.859311	0.731186	0.298592
0.638731	0.695266	0.720966
0.871294	0.606046	0.401315
0.236639	0.048046	0.501879
0.972726	0.544850	0.452767
0.163770	0.932274	0.585071
0.057204	0.050062	0.107892
0.961183	0.088937	0.014406
0.871016	0.817805	0.991564
0.666506	0.842870	0.249635
0.122633	0.098284	0.962472
0.639815	0.378632	0.457770
0.992053	0.676491	0.497956
0.907298	0.586999	0.535089
0.990286	0.209826	0.993679
0.833835	0.599124	0.224656
0.389774	0.545190	0.294072
0.768481	0.733600	0.399141
0.205412	0.383362	0.171682
0.942042	0.494743	0.346407
0.578133	0.474471	0.717106
0.967710	0.183761	0.098351
0.785512	0.581103	0.992140
0.802529	0.022861	0.035786
0.954584	0.430565	0.440729
0.773577	0.054582	0.298147
0.921948	0.821183	0.304114
0.949527	0.813261	0.725158
0.684206	0.845001	0.420073
0.957534	0.764333	0.031371
0.234788	0.641769	0.219169
0.185118	0.202429	0.812946
0.095934	0.978405	0.915871
0.618001	0.864148	0.753122
0.162617	0.961518	0.268170
0.894091	0.726773	0.434206
0.232804	0.345630	0.264108
0.095313	0.554424	0.916448
0.272015	0.825520	0.977703
0.196094	0.579775	0.293024
0.225547	0.052704	0.018732
0.732375	0.879966	0.518774
0.999712	0.926552	0.608572
0.051651	0.389092	0.658443
0.858248	0.942588	0.559240
0.018258	0.815886	0.511693
0.065646	0.330781	0.216694
0.320882	0.109547	0.770082
0.493158	0.216663	0.829243
0.756787	0.126586	0.428355
0.219531	0.081425	0.156086
0.846333	0.198155	0.354149
0.191197	0.235535	0.414803
0.585984	0.998242	0.790587
0.356780	0.158468	0.057114
0.256588	0.137700	0.900904
0.010903	0.123172	0.890922
0.230965	0.280399	0.112706
0.381235	0.839011	0.001102
0.425043	0.087304	0.836785
0.787782	0.110695	0.527988
0.352275	0.331451	0.151259
0.130643	0.622908	0.823513
0.956328	0.510555	0.973058
0.815194	0.277397	0.250781
0.582802	0.234080	0.354951
0.126188	0.843732	0.220356
0.234762	0.702717	0.670028
0.364558	0.546908	0.954954
0.108386	0.722783	0.705039
0.895956	0.921066	0.687941
0.309432	0.617255	0.651805
0.050054	0.330700	0.408900
0.102267	0.196785	0.052593
0.753719	0.284601	0.787655
0.684526	0.358235	0.328135
0.737407	0.392501	0.562371
0.133349	0.429185	0.753070
0.117961	0.133191	0.723483
0.043683	0.731969	0.925848
0.124248	0.700861	0.164111
0.177588	0.434820	0.037145
0.107966	0.281707	0.103003
0.008513	0.267101	0.502156
0.123254	0.718694	0.573961
0.420426	0.541550	0.726537
0.854004	0.858707	0.866903
0.946157	0.370609	0.231543
0.438523	0.587351	0.092951
0.016768	0.497063	0.239992
0.487978	0.542363	0.206908
0.613961	0.619369	0.609918
0.579840	0.452628	0.264266
0.141382	0.819555	0.956455
0.997979	0.863135	0.238290
0.049878	0.596144	0.167734
0.191067	0.846570	0.751068
0.309159	0.244498	0.589418
0.207460	0.530991	0.557269
0.686084	0.478299	0.329896
0.312419	0.735908	0.434055
0.946645	0.718127	0.860811
0.026048	0.924512	0.397627
0.715895	0.087190	0.098817
0.069339	0.204215	0.250358
0.179316	0.120115	0.422955
0.131837	0.113127	0.844674
0.010996	0.448935	0.790857
0.391315	0.663974	0.500013
0.367953	0.219265	0.690444
0.371725	0.080093	0.378178
0.228836	0.374846	0.681425
0.329986	0.317057	0.724347
0.010635	0.919183	0.752049
0.422841	0.604659	0.596067
0.259509	0.732485	0.549076
0.260520	0.595590	0.858768
0.340388	0.094139	0.220664
0.541816	0.197443	0.119937
0.021321	0.761590	0.144679
0.439535	0.465411	0.067012
0.304605	0.484006	0.623790
0.361539	0.590523	0.823821
0.228850	0.629120	0.495490
0.468850	0.209823	0.708106
0.431345	0.338688	0.609946
0.553476	0.435056	0.045474
0.938123	0.687654	0.172745
0.618528	0.315170	0.217364
0.222768	0.211859	0.261185
0.388844	0.414974	0.307615
0.454479	0.449650	0.553048
0.360017	0.440331	0.440459
0.222461	0.897240	0.157378
0.101771	0.311037	0.551514
0.828167	0.369185	0.140750
0.352200	0.630058	0.215877
0.013933	0.802372	0.401892
0.363317	0.310998	0.267775
0.368335	0.716531	0.143357
0.048233	0.424539	0.927784
0.103985	0.589990	0.474318
0.151754	0.670097	0.934124
0.527008	0.516376	0.365946
0.304390	0.179195	0.341631
0.367172	0.679604	0.024945
0.846382	0.840674	0.452427
0.203643	0.389993	0.565686
0.851364	0.459002	0.078185
0.328549	0.205093	0.195259
0.609309	0.763656	0.360395
0.291670	0.336918	0.378746
0.460203	0.822346	0.902994
0.694698	0.904249	0.122634
0.080397	0.410609	0.328873
0.497412	0.660767	0.252483
0.970547	0.670170	0.750566
0.049101	0.313115	0.750699
0.539101	0.966064	0.889342
0.158825	0.994298	0.142531
0.220599	0.014141	0.759386
0.057690	0.006355	0.307611
0.267273	0.938594	0.646947
0.411500	0.549680	0.410997
0.195538	0.843885	0.438936
0.080695	0.825847	0.661803
0.438982	0.153489	0.284746
0.051695	0.031955	0.580389
0.720683	0.225650	0.334333
0.197346	0.328411	0.462148
0.967930	0.236477	0.341937
0.314295	0.852617	0.751152
0.082754	0.172633	0.392618
0.539391	0.797270	0.657043
0.186944	0.261173	0.674204
0.464084	0.091247	0.070738
0.257672	0.463968	0.451221
0.361183	0.932929	0.338113
0.808788	0.362904	0.690580
0.443003	0.328540	0.434530
0.258942	0.451658	0.803354
0.680273	0.673775	0.380635
0.630557	0.374737	0.938971
0.300803	0.339452	0.857255
0.803618	0.218230	0.129032
0.826507	0.148477	0.018898
0.390018	0.865585	0.133895
0.035520	0.395422	0.550088
0.203775	0.445684	0.361087
0.219225	0.021636	0.879906
0.168587	0.054347	0.611687
0.277363	0.472804	0.276044
0.562964	0.007994	0.292894
0.727079	0.327184	0.166837
0.529811	0.026227	0.572846
0.116443	0.716033	0.446167
0.604802	0.961369	0.491840
0.127135	0.600073	0.614564
0.888205	0.853398	0.150099
0.122935	0.859904	0.328133
0.601685	0.458188	0.592199
0.719036	0.475921	0.938451
0.695333	0.406034	0.056030
0.611063	0.933123	0.349894
0.276890	0.240398	0.976507
0.321972	0.563048	0.085963
0.917240	0.331594	0.757180
0.684238	0.206908	0.222187
0.751080	0.993005	0.158666
0.117422	0.844216	0.528932
0.218611	0.971107	0.386056
0.809190	0.506375	0.363220
0.280003	0.788179	0.122735
0.352521	0.690712	0.738623
0.398903	0.420764	0.972554
0.566171	0.815885	0.217139
0.420772	0.281094	0.983689
0.234338	0.759807	0.237636
0.379167	0.477675	0.197136
0.333416	0.752906	0.308929
0.130618	0.964386	0.704973
0.003283	0.888931	0.104174
0.560423	0.845059	0.101008
0.966234	0.856503	0.857531
0.475912	0.268571	0.230141
0.950635	0.278569	0.625904
0.292363	0.147826	0.478821
0.667127	0.538178	0.217678
0.287743	0.929220	0.533689
0.236130	0.348741	0.938903
0.013445	0.861089	0.965211
0.204391	0.546446	0.155092
0.231636	0.165084	0.071046
0.262724	0.057616	0.312064
0.775104	0.902472	0.646830
0.582080	0.804429	0.492669
0.428746	0.192871	0.566954
0.465975	0.068022	0.194019
0.105535	0.323041	0.983752
0.312328	0.971143	0.211875
0.344115	0.990078	0.447373
0.721729	0.247464	0.916039
0.474037	0.328035	0.084481
0.609212	0.336790	0.593116
0.557784	0.331893	0.794456
0.751769	0.442429	0.229363
0.493624	0.187381	0.433178
0.598096	0.305297	0.070227
0.519548	0.910285	0.002978
0.609543	0.490666	0.870933
0.124697	0.973456	0.468441
0.560793	0.470925	0.490205
0.941903	0.353957	0.334733
0.640414	0.098607	0.554102
0.433391	0.224528	0.122603
0.202149	0.317343	0.789272
0.616142	0.163093	0.710656
0.486143	0.407105	0.186198
0.549217	0.182253	0.004402
0.090342	0.153442	0.533083
0.619808	0.163348	0.460769
0.086571	0.218398	0.646244
0.090482	0.663498	0.038041
0.429580	0.188488	0.937610
0.515979	0.678309	0.662653
0.280845	0.713010	0.974145
0.577598	0.570899	0.122049
0.523504	0.641671	0.425294
0.761407	0.306456	0.432557
0.466949	0.779292	0.042764
0.272045	0.587849	0.377813
0.358187	0.446654	0.867395
0.432751	0.873206	0.418725
0.729167	0.803170	0.141156
0.831350	0.696066	0.025419
0.620205	0.704825	0.514251
0.247940	0.815134	0.617400
0.294364	0.440212	0.117691
0.360906	0.838800	0.854687
0.600556	0.083760	0.176394
0.301961	0.934550	0.064617
0.605665	0.907199	0.611354
0.952811	0.577128	0.102676
0.486345	0.887301	0.533948
0.360333	0.850981	0.252477
0.673924	0.490256	0.455139
0.347975	0.059650	0.955630
0.442083	0.958954	0.774119
0.692585	0.969518	0.715783
0.543315	0.690382	0.986168
0.462460	0.087494	0.492636
0.378228	0.721885	0.631842
0.650481	0.046800	0.925925
0.665262	0.538912	0.022507
0.326989	0.085721	0.607607
0.435366	0.999218	0.303244
0.731489	0.766760	0.512464
0.462345	0.956484	0.114947
0.682734	0.992451	0.262851
0.751158	0.952691	0.370034
0.461358	0.732307	0.751182
0.413613	0.099291	0.670005
0.502977	0.339152	0.321622
0.770966	0.025274	0.802883
0.578364	0.984812	0.168755
0.815966	0.900480	0.243016
0.706962	0.516521	0.605261
0.797971	0.216027	0.674781
0.639708	0.234565	0.831357
0.401517	0.832138	0.672820
0.476277	0.749765	0.346149
0.512538	0.380651	0.924506
0.423563	0.955574	0.951997
0.324124	0.329216	0.037357
0.534659	0.085788	0.385376
0.529926	0.176172	0.597013
0.787424	0.775030	0.652008
0.336662	0.368955	0.565325
0.499524	0.308891	0.523383
0.569010	0.270663	0.934820
0.780161	0.456107	0.775225
0.332271	0.207691	0.845429
0.902868	0.220196	0.700078
0.624654	0.429467	0.153164
0.152691	0.239632	0.919791
0.432710	0.764560	0.462487
0.725073	0.564848	0.733939
0.472062	0.473946	0.663607
0.248442	0.708736	0.771252
0.860983	0.615348	0.921327
0.490416	0.525478	0.873309
0.688655	0.391029	0.679596
0.743849	0.522968	0.125002
0.861673	0.742353	0.749379
0.463842	0.619703	0.950736
0.887262	0.507702	0.817311
0.741564	0.703043	0.236598
0.589641	0.789624	0.922194
0.418503	0.304146	0.840229
0.608913	0.740309	0.091285
0.636370	0.591742	0.458992
0.633505	0.224746	0.610265
0.162405	0.588740	0.719931
0.067742	0.468928	0.040408
0.407442	0.993434	0.558114
0.158663	0.760345	0.061785
0.027890	0.519033	0.561517
0.476140	0.622409	0.791158
0.509772	0.337745	0.687836
0.247682	0.136001	0.684339
0.442178	0.714662	0.876428
0.316267	0.853945	0.442896
0.572621	0.040901	0.042555
0.675453	0.803434	0.631910
0.516503	0.683075	0.131041
0.186792	0.761333	0.859334
0.867416	0.701177	0.568213
0.547705	0.546259	0.997379
0.642496	0.876589	0.966967
0.650264	0.116373	0.323629
0.760057	0.823432	0.298954
0.780057	0.639368	0.480422
0.666845	0.045317	0.437487
0.003806	0.034761	0.701242
0.655769	0.644309	0.985747
0.596723	0.573487	0.714495
0.133140	0.711222	0.318805
0.535994	0.857664	0.358573
0.927944	0.987068	0.311536
0.020245	0.981204	0.197193
0.801349	0.285866	0.582132
0.716068	0.000072	0.579292
0.608089	0.686257	0.237681
0.598259	0.281922	0.474375
0.596559	0.604926	0.838544
0.872404	0.909673	0.368874
0.937887	0.606446	0.286507
0.865097	0.484062	0.225447
0.892107	0.173706	0.550085
0.729394	0.569758	0.850601
0.908090	0.052437	0.524342
0.792016	0.521462	0.502972
0.511455	0.723208	0.567650
0.765608	0.091115	0.913719
0.909091	0.110933	0.794308
0.758680	0.670651	0.732185
0.930973	0.225372	0.214470
0.451336	0.787798	0.205709
0.807162	0.359864	0.992839
0.674935	0.107914	0.790297
0.804080	0.408033	0.455020
0.377420	0.414047	0.733838
0.980063	0.534792	0.685759
0.500612	0.972859	0.433544
0.869974	0.178713	0.886637
0.871167	0.612375	0.650761
0.047262	0.572533	0.756138
0.280558	0.528795	0.729111
0.928482	0.407991	0.872786
0.744669	0.827077	0.911490
0.963937	0.365004	0.038544
0.240958	0.658040	0.082600
0.790427	0.883883	0.758482
0.112093	0.444841	0.448699
0.703887	0.686677	0.878520
0.331456	0.277653	0.486169
0.504550	0.590285	0.526157
0.713752	0.759024	0.016250
0.812957	0.371812	0.334077
0.343841	0.964913	0.815955
0.055791	0.757175	0.805156
0.503944	0.855955	0.792501
0.986977	0.582188	0.886785
0.387757	0.815766	0.558906
0.077329	0.411955	0.143873
0.116607	0.873736	0.077842
0.300949	0.943803	0.936188
0.014040	0.739944	0.280076
0.771081	0.131535	0.213769
0.488955	0.921384	0.674700
0.371089	0.975154	0.673051
0.583031	0.036110	0.674068
0.575524	0.136466	0.875716
0.210102	0.902409	0.847918
0.670407	0.199829	0.094100
0.351810	0.043027	0.093398
0.902569	0.833282	0.562252
0.796464	0.000932	0.461148
0.790704	0.037486	0.678039
0.887133	0.965938	0.178460
0.475851	0.070568	0.942958
0.877229	0.103830	0.232921
0.120842	0.146887	0.158503
0.682547	0.142171	0.976757
0.715947	0.283641	0.028456
0.913618	0.426899	0.676862
0.399761	0.219767	0.393519
0.180631	0.943136	0.016471
0.795826	0.164340	0.786337
0.891707	0.069162	0.109202
0.953983	0.310220	0.132558
0.958449	0.311168	0.934514
0.877077	0.064564	0.392049
0.879147	0.261744	0.443508
0.984638	0.143816	0.628984
0.651684	0.287566	0.716566
0.029796	0.250383	0.865272
0.725971	0.658146	0.593165
0.849984	0.468479	0.950666
0.966258	0.461556	0.126632
0.828661	0.746756	0.154592
0.538860	0.410619	0.383266
0.818562	0.504842	0.662993
0.868116	0.607426	0.788563
0.850021	0.259969	0.022729
0.682082	0.920963	0.866223
0.773135	0.371803	0.869609
0.274348	0.459966	0.984949
0.994634	0.118041	0.328361
0.958127	0.755144	0.630181
0.920594	0.346411	0.546646
0.397722	0.657652	0.348268
0.144963	0.475200	0.644367
0.124194	0.560856	0.072444
0.010062	0.647068	0.616293
0.144769	0.476353	0.239623
0.889759	0.453466	0.542824
0.759703	0.603730	0.322811
0.045384	0.980847	0.016669
0.594521	0.734039	0.824128
0.091751	0.352106	0.845667
0.703207	0.784953	0.788977
0.238388	0.575093	0.981400
0.816039	0.720134	0.883931
0.962083	0.959367	0.908430
0.221237	0.702240	0.379331
0.084569	0.867867	0.840924
0.800521	0.967484	0.913630
0.253030	0.872676	0.301389
0.900386	0.935362	0.035633
0.008267	0.675000	0.381269
0.691062	0.651447	0.120264
0.056237	0.059508	0.460401
0.066284	0.612783	0.271394
0.138628	0.288290	0.322360
0.818533	0.610645	0.102956
0.308603	0.714894	0.873409

56	56	56
0 0 698.249 729.565 679.645 
0 0 0 0 0 
0 0 0 0 0 
0 0 0 0 0 
0 0 0 0 0 
0 0 0 0 0 
0 0 0 0 0 
0 629.169 674.809 652.627 0 
0 0 0 0 0 
0 0 0 0 0 
0 0 0 0 0 
0 0 0 0 603.927 
0 0 0 0 0 
0 0 584.162 623.285 608.651 
0 0 0 0 0 
0 0 0 0 0 
0 0 0 0 0 
0 0 0 0 0 
0 0 0 0 0 
0 0 0 0 0 
0 613.878 0 0 0 
0 0 0 0 0 
0 0 0 0 0 
0 0 0 0 0 
0 0 0 631.956 696.667 
690.298 615.274 0 0 0 
0 0 0 0 0 
0 0 0 0 0 
0 0 0 0 0 
0 0 0 0 0 
0 0 0 0 0 
0 0 601.628 0 0 
0 0 0 0 0 
0 0 0 0 0 
0 0 0 0 0 
0 0 0 0 661.036 
731.048 726.626 646.089 0 0 
0 0 0 0 0 
0 0 0 0 0 
0 0 0 0 0 
0 0 0 0 0 
0 0 0 0 0 
0 0 0 0 0 
0 0 0 0 0 
0 0 578.331 0 0 
0 0 0 0 0 
0 0 0 0 0 
636.947 689.871 682.657 611.138 0 
0 0 0 0 0 
0 0 0 0 0 
0 0 0 0 0 
0 0 0 0 0 
0 0 0 0 0 
0 0 0 0 0 
0 0 0 0 0 
0 605.009 681.505 690.464 621.231 
0 0 0 0 0 
0 0 0 0 0 
0 0 595.197 585.05 0 
0 0 0 0 0 
0 0 0 0 0 
0 0 0 0 0 
0 0 0 0 0 
0 0 0 0 0 
0 0 0 0 0 
0 0 0 0 0 
0 0 632.618 727.906 745.274 
667.625 0 0 0 0 
0 0 0 0 0 
0 0 0 0 0 
0 0 0 0 0 
0 0 0 0 0 
0 0 0 0 0 
0 0 0 0 0 
0 0 0 0 597.059 
577.291 0 0 0 0 
0 0 0 0 0 
0 0 0 594.768 689.141 
715.049 650.277 0 0 0 
0 0 0 0 0 
0 0 0 0 0 
0 0 0 0 0 
0 0 0 0 0 
0 0 0 0 0 
0 0 0 0 0 
0 0 0 0 623.096 
687.892 665.762 577.108 0 0 
0 0 606.387 653.327 628.614 
0 0 0 0 0 
601.183 636.812 600.293 0 0 
0 0 0 0 0 
0 0 0 0 0 
0 0 0 0 0 
0 0 0 0 0 
0 0 0 0 0 
0 0 0 0 0 
0 0 0 0 0 
642.947 719.513 698.559 598.073 0 
0 0 0 644.555 714.181 
693.094 593.711 0 0 0 
0 0 578.318 0 582.318 
0 0 0 0 0 
0 0 0 0 0 
0 0 0 0 0 
0 0 0 0 0 
0 0 0 0 0 
0 0 0 609.573 700.772 
712.74 632.402 0 0 0 
0 595.749 668.269 654.402 0 
0 0 0 0 628.501 
707.827 694.984 598.145 0 0 
0 0 0 582.558 614.827 
688.94 598.257 0 0 0 
0 0 0 0 0 
0 0 0 0 0 
0 0 0 0 0 
0 0 0 0 0 
0 0 0 0 652.565 
772.579 798.23 708.574 0 0 
0 0 0 0 0 
0 0 0 0 0 
0 646.25 646.291 0 0 
0 0 0 0 640.907 
709 784.034 678.853 0 0 
0 0 0 0 0 
0 0 0 0 0 
0 0 0 0 0 
0 0 0 0 0 
0 0 0 0 0 
631.364 753.314 788.141 708.86 0 
0 0 0 0 0 
0 0 0 0 0 
0 0 0 599.69 0 
0 0 0 0 0 
699.759 795.749 796.365 690.894 0 
0 0 0 0 0 
0 0 0 0 0 
0 0 0 0 0 
0 0 0 0 0 
0 0 0 0 0 
0 0 658.746 698.17 645.698 
0 0 0 0 0 
0 0 0 0 0 
0 0 0 0 603.38 
0 0 0 0 0 
0 701.946 803.822 708.217 620.067 
0 0 0 0 0 
0 0 0 0 0 
0 0 0 694.73 698.145 
0 0 0 0 0 
0 607.873 611.163 0 0 
0 0 0 0 591.052 
0 0 0 0 0 
0 0 0 0 0 
0 0 0 0 598.969 
654.915 633.811 0 0 0 
0 0 634.321 716.237 0 
0 0 0 0 0 
0 0 0 0 0 
0 0 0 0 708.549 
721.665 650.896 0 0 0 
0 617.59 698.861 703.743 623.733 
0 0 0 0 0 
0 0 0 0 0 
0 0 0 0 610.874 
0 0 0 0 0 
640.553 706.93 687.863 590.886 0 
0 0 0 0 588.32 
0 0 0 0 0 
0 0 0 0 0 
0 0 0 0 0 
668.086 694.064 648.235 0 0 
0 0 683.398 778.235 782.431 
684.362 0 0 0 0 
0 0 0 0 0 
0 0 0 0 637.882 
687.746 656.581 0 0 0 
0 657.143 714.458 691.036 594.397 
0 0 0 0 0 
0 0 0 0 0 
0 0 622.153 0 0 
0 0 0 0 0 
0 0 651.67 642.113 0 
0 0 598.342 700.128 786.845 
788.59 691.738 0 0 0 
0 0 0 0 0 
0 0 0 0 0 
649.904 705.17 680.949 608.991 0 
0 587.64 646.223 675.048 640.41 
0 0 0 0 0 
0 0 0 0 0 
0 0 660.779 711.845 665.26 
0 0 0 0 0 
0 0 0 0 650.384 
640.597 0 0 590.793 653.041 
710.85 708.722 632.817 0 0 
0 0 0 0 0 
0 0 0 0 0 
0 602.316 650.9 641.087 598.679 
0 587.242 620.451 642.35 628.722 
0 0 0 0 0 
0 0 0 0 0 
0 0 0 693.294 744.959 
692.129 0 0 0 0 
0 0 0 0 0 
649.292 657.5 0 0 0 
0 598.122 590.912 0 0 
0 0 0 0 0 
0 0 0 0 0 
0 0 0 0 0 
0 593.354 646.22 687.797 679.646 
617.902 0 0 0 0 
0 0 0 0 0 
0 0 0 0 647.608 
690.737 645.674 0 0 0 
0 0 0 0 0 
0 0 0 0 0 
0 0 0 0 0 
0 0 0 0 0 
0 0 0 0 0 
0 0 0 0 0 
0 0 616.392 709.108 765.6 
738.553 636.566 0 0 0 
0 0 0 621.418 0 
0 0 0 0 0 
0 0 0 0 0 
0 0 0 0 0 
0 0 0 0 0 
0 0 0 0 0 
0 0 0 0 0 
0 0 0 0 0 
0 0 0 0 0 
0 0 0 618.364 732.221 
798.156 763.541 642.869 0 0 
0 0 0 602.885 639.466 
0 0 0 0 0 
0 0 0 0 0 
0 0 0 0 0 
0 0 0 0 0 
0 0 0 0 0 
0 0 0 0 0 
0 0 0 0 0 
0 0 0 0 0 
0 0 0 0 0 
685.794 749.588 721.417 612.756 0 
0 0 0 0 0 
0 0 0 0 0 
0 0 0 0 0 
0 0 0 0 0 
0 0 0 0 0 
0 0 0 0 0 
0 0 0 0 0 
0 0 0 0 0 
0 0 0 0 0 
0 0 0 0 0 
0 590.021 644.117 634.685 0 
0 0 0 0 0 
0 0 0 0 0 
0 0 0 0 0 
0 0 0 0 0 
0 0 0 0 0 
0 0 0 0 0 
695.402 686.865 0 0 0 
0 0 0 0 0 
0 0 0 0 0 
0 0 0 0 0 
0 0 0 0 0 
0 0 0 0 0 
0 0 0 0 0 
0 0 0 0 0 
0 0 0 0 0 
633.769 628.606 635.866 658.424 663.575 
626.575 0 0 0 0 
658.733 730.837 728.1 651.561 0 
0 0 0 0 0 
0 0 0 0 0 
0 0 0 0 0 
0 0 0 0 0 
0 0 0 0 0 
0 0 0 0 0 
0 0 0 0 0 
0 0 0 0 0 
0 635.536 647.051 683.194 738.653 
764.234 722.469 628.35 0 0 
0 0 689.026 691.105 0 
0 0 0 0 0 
0 0 0 0 0 
0 0 0 0 0 
0 0 0 0 0 
0 0 0 0 0 
0 0 0 0 0 
0 0 0 0 0 
0 0 0 0 0 
0 0 0 0 673.38 
751.27 790.864 751.698 650.1 0 
0 0 0 0 0 
0 0 0 0 0 
0 0 0 0 0 
0 0 0 0 0 
0 0 0 0 0 
0 0 0 0 0 
0 0 0 0 0 
0 0 0 0 0 
0 0 0 0 0 
0 0 0 0 0 
0 692.996 732.488 701.648 0 
0 0 0 0 0 
0 0 0 0 0 
0 0 0 0 0 
0 0 0 0 0 
0 0 0 0 0 
0 0 0 0 0 
0 0 0 0 0 
0 0 0 0 0 
0 0 0 0 0 
0 0 0 0 0 
0 0 0 644.017 622.073 
0 0 0 0 0 
0 0 0 0 0 
0 0 0 0 604.54 
0 0 0 0 0 
0 612.529 0 0 0 
0 0 0 0 0 
0 0 0 0 0 
0 627.904 628.696 0 0 
0 0 0 0 0 
0 0 0 0 0 
0 0 0 0 0 
0 0 0 0 0 
0 0 0 0 0 
0 0 0 0 683.183 
707.952 656.413 0 0 0 
624.542 689.746 698.398 645.918 0 
0 0 0 0 0 
0 0 0 0 0 
0 0 638.102 642.695 0 
0 0 0 0 0 
0 0 0 0 0 
0 0 0 0 630.138 
0 0 0 0 0 
0 0 0 0 0 
0 0 0 0 653.218 
765.186 792.004 727.892 633.129 0 
613.333 693.998 756.66 747.564 671.687 
0 0 0 0 0 
0 0 0 0 0 
0 0 0 0 603.113 
0 0 0 0 0 
0 0 0 0 0 
0 0 0 0 688.071 
710.254 662.037 0 0 0 
0 0 0 0 0 
0 0 0 0 0 
669.914 772.314 792.835 727.358 636.188 
0 625.563 701.117 752.8 733.049 
653.826 0 0 0 628.596 
664.155 634.371 0 0 0 
0 0 0 0 0 
0 0 0 0 0 
0 0 0 0 0 
0 0 0 0 648.78 
746.463 757.737 685.886 0 0 
0 0 0 0 0 
0 0 0 0 0 
0 630.591 697.211 703.909 650.248 
0 0 603.213 666.746 703.573 
678.689 608.673 0 0 610.274 
710.578 768.255 733.451 623.748 0 
0 0 0 0 0 
0 0 0 0 0 
0 0 0 0 0 
0 0 0 0 0 
637.633 724.163 727.481 651.058 0 
0 0 0 0 0 
0 0 0 0 0 
0 0 0 0 0 
0 0 0 0 645.685 
671.808 638.907 0 0 0 
599.481 713.517 784.302 760.262 657.292 
0 0 0 0 0 
0 0 608.464 592.177 601.904 
0 0 0 0 0 
0 0 0 0 0 
0 0 637.24 637.295 0 
0 0 0 0 0 
0 0 0 0 0 
0 0 0 0 0 
0 0 0 0 0 
679.612 703.312 653.455 0 0 
0 0 633.826 707.55 708.805 
642.439 0 0 0 0 
0 0 616.634 698.71 692.154 
671.669 0 0 0 0 
0 0 0 0 0 
0 0 0 0 0 
0 0 0 0 0 
0 0 0 0 0 
0 0 0 0 0 
0 0 0 0 0 
644.72 741.628 766.93 697.549 0 
0 0 0 0 596.118 
628.42 609.374 0 0 0 
0 0 0 660.42 763.578 
766.449 677.871 0 0 0 
0 0 0 0 0 
0 0 0 0 0 
0 0 0 0 0 
0 0 0 0 0 
0 0 0 0 0 
0 0 0 0 0 
0 669.008 768.164 792.595 715.306 
0 0 0 0 0 
0 0 598.408 0 0 
0 0 0 0 643.997 
749.011 759.755 619.033 0 0 
0 0 645.997 651.206 0 
0 0 0 0 0 
0 0 0 0 0 
0 0 677.381 663.902 0 
0 0 0 0 0 
0 640.063 683.013 668.252 610.559 
0 0 639.711 717.916 738.848 
674.051 0 0 0 0 
0 0 0 624.775 611.857 
0 0 0 0 0 
0 658.061 673.799 0 0 
0 0 0 630.491 638.212 
0 0 0 0 0 
0 0 0 0 0 
641.667 658.228 705.424 742.321 713.036 
0 0 0 0 0 
0 0 689.338 760.416 748.898 
668.418 0 0 0 610.281 
628.913 0 0 0 0 
0 0 0 591.774 665.324 
660.535 0 0 0 0 
0 0 0 0 0 
0 0 0 0 0 
0 0 0 0 0 
0 0 0 0 658.511 
712.969 715.25 699.768 708.064 717.352 
677.548 0 0 0 0 
0 0 0 683.404 760.642 
750.881 664.641 0 0 0 
0 0 0 0 0 
0 0 0 0 595.887 
671.967 670.811 590.503 0 0 
0 0 0 0 0 
0 0 0 0 0 
0 0 0 0 0 
0 0 0 0 0 
683.87 741.204 726.843 676.463 0 
0 0 0 0 0 
0 0 0 0 619.985 
678.325 669.1 0 0 0 
0 0 0 0 0 
0 0 0 0 0 
0 620.223 623.117 0 0 
0 0 0 0 0 
0 0 0 0 0 
0 0 0 0 0 
0 0 0 0 0 
0 656.848 704.16 676.049 0 
0 0 0 0 0 
0 0 0 0 0 
0 0 0 0 0 
0 0 0 0 0 
618.714 646.57 606.755 0 0 
0 0 0 0 0 
0 0 0 0 0 
0 0 0 0 0 
0 0 0 0 0 
0 0 0 0 0 
0 0 0 640.62 0 
0 0 0 0 0 
0 0 0 0 0 
0 0 0 0 0 
0 0 0 0 0 
570.788 682.736 731.272 686.323 581.971 
0 0 0 0 0 
0 0 0 0 583.256 
630.343 636.037 587.098 0 0 
0 0 0 0 0 
0 0 0 0 0 
0 0 0 0 0 
0 0 0 0 0 
0 0 0 0 0 
0 0 0 0 0 
0 0 0 0 0 
0 567.123 685.79 741.751 700.235 
591.914 0 0 0 0 
0 0 581.572 592.44 607.114 
644.623 680.474 674.249 613.061 0 
0 0 0 0 0 
0 0 0 0 0 
0 0 0 0 0 
646.092 0 0 0 0 
0 0 0 0 0 
0 0 0 0 0 
0 0 0 0 0 
0 0 0 623.166 674.591 
648.416 565.487 0 0 0 
0 0 644.559 689.729 684.541 
660.958 658.099 667.511 652.264 598.005 
0 0 0 0 0 
0 0 0 634.803 608.619 
0 0 0 0 0 
703.434 713.88 658.006 0 0 
0 0 662.293 653.928 0 
0 0 0 0 0 
0 0 0 0 0 
0 0 0 0 0 
579.202 574.861 0 0 0 
0 0 636.94 743.15 786.722 
752.052 680.112 627.629 608.404 593.824 
0 0 0 0 0 
0 0 0 606.16 639.536 
604.446 0 0 0 0 
642.446 732.217 746.448 695.524 641.731 
648.351 712.388 774.789 781.662 728.732 
654.967 0 0 0 0 
0 0 0 0 0 
0 0 0 0 0 
0 0 0 0 0 
0 0 582.665 685.527 782.533 
810.495 751.358 650.374 570.79 0 
0 0 0 0 0 
0 0 0 0 0 
0 0 0 0 0 
0 0 686.58 707.446 675.755 
647.478 678.237 758.715 825.185 817.864 
735.619 0 0 0 0 
0 0 0 0 0 
0 0 0 0 0 
0 0 0 0 0 
0 575.667 583.054 612.521 676.557 
738.011 743.747 677.549 578.679 0 
0 0 0 603.667 608.69 
0 0 0 0 0 
0 0 0 0 0 
0 0 0 0 0 
0 0 642.276 709.965 762.245 
747.578 666.038 0 0 0 
0 0 0 0 0 
0 0 0 0 0 
0 0 0 0 0 
0 613.92 637.24 627.424 615.056 
626.787 645.827 633.986 578.481 0 
0 0 0 0 0 
600.967 0 0 0 0 
0 0 0 0 0 
0 0 0 0 0 
0 0 0 0 0 
0 0 0 0 0 
0 0 0 0 0 
0 0 0 0 585.508 
618.908 592.772 0 0 0 
0 0 629.56 655.061 631.607 
592.168 569.822 0 0 0 
0 0 0 0 0 
0 0 0 0 0 
0 0 0 0 0 
0 0 0 0 0 
0 0 0 0 0 
0 0 0 0 0 
0 0 0 671.171 713.851 
678.105 591.138 0 0 0 
591.516 633.316 616.576 0 0 
0 0 0 589.903 612.726 
588.563 0 0 0 0 
0 0 0 0 0 
0 0 0 0 0 
0 0 0 0 0 
603.666 616.39 0 0 0 
0 0 0 0 0 
0 0 0 0 0 
0 0 0 639.706 739.673 
781.399 731.243 620.362 0 0 
0 0 622.015 628.1 0 
0 0 0 0 0 
0 0 0 0 0 
0 0 0 0 0 
0 0 0 0 0 
0 0 0 0 0 
597.967 683.511 718.576 676.068 588.138 
0 0 0 0 0 
0 0 0 0 0 
0 0 0 0 636.907 
715.012 741.849 688.339 0 0 
0 0 0 626.169 665.723 
639.344 0 0 0 0 
0 0 0 0 0 
0 0 585.02 579.029 0 
0 0 0 0 0 
638.614 648.771 606.547 0 0 
0 616.232 709.363 754.894 717.346 
625.344 0 0 0 0 
0 0 0 0 0 
0 0 0 0 0 
0 614.974 621.926 0 0 
0 0 0 0 659.71 
731.604 716.823 623.317 0 0 
0 0 0 0 0 
0 0 0 573.851 571.359 
0 0 0 0 0 
635.444 731.603 757.569 702.661 611.979 
0 0 0 658.435 703.854 
682.061 610.351 0 0 0 
0 0 0 0 0 
0 0 0 0 0 
0 0 0 0 0 
0 0 0 0 0 
688.632 776.339 765.757 661.153 0 
0 0 0 0 0 
0 0 0 0 0 
0 0 0 0 0 
0 649.279 760.915 794.241 734.443 
627.859 0 0 0 0 
609.042 612.101 0 0 0 
0 0 0 0 0 
0 0 0 0 0 
0 0 0 0 0 
0 0 0 0 0 
0 679.044 756.554 742.679 641.3 
0 0 0 0 0 
0 0 0 0 0 
0 0 0 0 0 
0 0 628.759 732.327 754.873 
683.711 0 0 0 0 
0 0 604.561 610.721 0 
0 0 0 0 0 
0 0 0 0 0 
0 0 0 0 0 
0 0 0 0 0 
0 590.175 658.246 704.638 684.439 
599.677 0 0 0 0 
621.496 656.873 622.398 0 0 
0 0 0 0 0 
0 0 0 0 618.189 
631.775 0 0 0 0 
0 0 0 619.166 668.98 
653.615 0 0 0 0 
0 0 0 0 0 
0 0 0 0 0 
0 0 0 0 609.785 
607.372 0 0 0 0 
0 0 0 0 0 
0 677.376 718.541 670.74 0 
0 0 0 0 0 
0 0 0 0 0 
0 0 0 0 0 
0 0 0 0 668.252 
750.97 746.507 657.683 0 0 
0 0 0 0 0 
0 0 0 0 0 
0 0 0 0 636.034 
674.793 651.484 0 0 0 
0 0 0 0 0 
0 0 665.606 705.251 658.3 
0 0 0 0 0 
0 0 0 0 0 
0 0 0 0 0 
0 0 0 0 0 
693.657 787.349 787.175 691.784 0 
0 0 0 0 0 
0 0 0 0 0 
0 0 0 0 0 
639.928 662.737 626.479 0 0 
0 0 0 0 0 
0 0 0 599.339 632.321 
598.77 0 0 0 0 
0 0 587.13 596.526 0 
0 0 0 0 0 
0 0 0 0 0 
0 660.469 739.566 738.337 653.176 
0 0 0 0 0 
0 0 0 0 0 
0 0 0 0 0 
0 0 0 0 0 
0 0 0 0 0 
0 0 0 0 0 
0 0 0 0 0 
0 0 624.229 708.324 721.727 
651.882 0 0 0 0 
0 0 0 0 0 
0 0 584.486 636.152 632.789 
0 0 0 0 0 
0 0 0 0 0 
0 0 0 0 0 
0 0 0 0 0 
0 0 0 0 0 
0 0 0 0 0 
0 0 0 0 0 
0 0 0 663.406 765.84 
784.599 700.859 0 0 0 
0 0 0 0 0 
0 0 0 0 0 
0 0 0 0 0 
0 0 0 0 0 
0 0 0 0 0 
0 0 0 0 0 
0 0 0 0 0 
0 0 0 0 0 
0 0 0 598.964 0 
0 0 0 0 630.755 
730.973 755.39 680.773 0 0 
0 0 0 0 0 
0 0 0 0 0 
0 0 0 0 0 
0 0 0 0 0 
0 0 0 0 0 
0 0 0 0 0 
0 0 0 0 0 
0 0 0 0 0 
0 0 0 634.28 696.576 
675.309 586.62 0 0 0 
0 641.63 674.231 626.436 0 
0 0 0 0 0 
0 0 0 0 0 
0 0 0 0 0 
0 0 0 0 0 
0 0 0 0 0 
0 0 0 0 0 
0 0 0 0 0 
0 0 597.686 584.796 0 
0 0 0 0 684.734 
769.61 748.857 637.482 0 0 
0 0 0 612.802 598.296 
586.119 0 0 0 0 
0 0 0 0 0 
0 0 0 0 0 
0 0 0 0 0 
0 0 0 0 0 
0 0 0 0 599.59 
687.74 697.475 617.898 0 0 
0 0 0 576.179 0 
0 0 0 0 0 
675.723 768.084 752.431 641.014 0 
0 0 0 0 610.445 
629.479 676.084 592.287 0 0 
0 0 0 0 0 
0 0 0 0 0 
0 0 0 0 0 
0 0 0 0 0 
0 0 0 0 0 
634.139 751.699 775.989 689.358 0 
0 0 0 0 0 
0 0 0 0 0 
0 617.523 705.099 700.833 611.04 
0 0 0 0 0 
653.713 704.98 749.663 658.841 0 
0 0 606.815 614.42 0 
0 0 0 0 0 
0 0 0 0 0 
0 0 0 0 0 
0 0 0 0 0 
0 607.479 727.006 760.583 685.655 
0 0 0 0 0 
0 0 0 0 0 
0 0 0 642.214 655.455 
593.906 0 0 0 0 
0 691.88 767.979 747.096 659.766 
0 0 0 604.895 611.637 
0 0 0 0 0 
0 0 0 0 0 
0 0 0 0 0 
0 0 0 0 0 
0 0 0 627.995 665.239 
617.632 0 0 0 0 
0 0 0 0 0 
0 0 0 0 634.131 
671.607 630.676 0 0 0 
0 0 676.89 758.709 655.691 
585.479 0 0 0 0 
0 0 0 0 0 
0 0 0 0 0 
0 0 0 0 0 
0 0 0 0 0 
0 0 0 0 0 
0 0 0 0 0 
0 0 0 0 0 
0 0 0 0 0 
678.821 741.786 710.419 600.391 0 
0 0 0 599.739 665.179 
0 0 0 0 0 
0 0 0 0 0 
0 0 0 0 0 
0 0 0 0 0 
0 0 0 0 0 
0 0 0 0 0 
0 0 0 0 0 
0 0 0 0 634.091 
658.844 612.576 0 0 0 
601.89 726.027 803.42 775.51 652.805 
0 0 0 0 0 
0 0 0 0 0 
0 0 0 0 0 
0 0 0 0 0 
0 0 0 0 0 
0 0 0 0 645.701 
651.326 587.539 0 0 0 
0 0 0 0 0 
0 0 0 0 607.692 
718.02 764.804 717.811 617.901 0 
0 620.704 731.423 800.497 770.313 
649.901 0 0 0 0 
0 0 0 0 0 
0 0 0 0 0 
0 0 0 0 0 
0 0 0 0 637.433 
0 0 0 0 614.136 
670.056 675.967 615.664 0 0 
0 0 0 0 0 
0 0 0 0 0 
623.667 741.984 798.012 756.821 657.994 
0 0 619.22 693.074 731.591 
693.441 590.674 0 0 0 
0 0 0 0 0 
0 0 0 0 630.646 
0 0 0 0 0 
0 0 0 0 0 
696.992 716.723 679.629 0 0 
600.298 632.781 636.233 592.428 0 
0 0 0 0 0 
0 0 0 0 0 
0 590.381 688.685 739.325 712.68 
641.872 589.611 589.146 621.592 652.087 
648.344 596.734 0 0 0 
0 0 0 0 0 
0 0 0 0 0 
636.56 0 0 0 0 
0 0 0 0 0 
0 727.09 769.585 733.845 650.785 
0 0 0 0 0 
0 0 0 0 0 
0 0 0 0 0 
0 0 0 599.911 635.689 
626.562 597.052 591.125 621.571 653.609 
650.59 602.838 0 0 0 
0 0 0 0 0 
0 0 0 0 0 
0 0 0 0 0 
0 0 0 0 0 
0 0 692.017 741.354 711.514 
0 0 0 0 0 
0 0 0 0 0 
0 0 0 0 0 
0 0 0 0 0 
0 0 0 596.274 658.574 
700.017 678.537 596.646 0 0 
0 0 0 645.619 681.532 
629.874 0 0 0 0 
0 0 0 0 0 
0 0 0 0 0 
0 0 0 0 642.766 
0 0 0 0 0 
0 0 0 0 0 
0 0 0 0 0 
0 0 0 0 0 
0 0 0 0 590.147 
668.653 717.057 688.728 591.729 0 
0 0 0 0 694.195 
741.594 685.723 0 0 0 
0 0 0 0 0 
0 0 0 0 0 
0 0 0 0 0 
0 0 0 0 0 
0 0 0 0 0 
0 0 0 0 0 
0 0 0 0 0 
0 0 0 0 0 
0 627.533 674.93 652.685 0 
0 0 0 0 0 
663.317 712.558 665.497 0 0 
0 0 0 0 0 
0 0 0 0 0 
0 0 0 0 0 
0 0 0 0 0 
0 0 0 0 0 
0 0 0 0 0 
0 0 0 0 0 
0 0 600.824 0 0 
0 0 0 590.323 585.553 
0 0 0 0 0 
0 0 609.107 0 0 
0 0 0 0 0 
0 0 0 0 653.171 
635.422 0 0 0 0 
0 0 0 0 0 
0 0 0 0 0 
0 0 0 0 0 
0 0 0 0 0 
0 0 584.897 606.758 0 
0 0 0 0 0 
0 0 0 0 0 
0 0 0 0 0 
0 0 0 0 0 
0 0 0 0 695.765 
739.991 720.82 665.644 621.904 0 
0 0 0 0 0 
0 0 0 635.76 0 
0 0 0 0 0 
637.828 664.343 617.94 0 0 
0 0 0 0 0 
0 0 0 0 0 
0 0 0 0 0 
0 0 0 0 0 
0 0 0 0 640.803 
676.658 655.541 0 0 628.823 
695.415 734.827 721.04 679.915 658.348 
667.013 666.817 624.682 0 0 
0 0 0 0 643.672 
638.086 0 0 0 0 
0 650.749 673.755 621.636 0 
0 0 0 0 0 
0 0 0 0 0 
0 0 0 0 0 
0 0 0 0 0 
0 0 0 0 0 
697.322 741.782 711.924 641.016 0 
0 0 640.351 636.481 623.358 
633.354 665.786 678.677 639.492 0 
0 0 0 0 0 
0 0 0 0 0 
0 0 619.999 636.557 0 
0 0 0 0 0 
0 0 0 0 0 
0 0 0 0 0 
0 0 0 0 0 
0 0 0 0 0 
0 671.979 718.24 692.991 622.395 
0 0 0 0 0 
0 0 0 626.285 0 
0 0 0 0 0 
0 0 0 0 0 
0 0 0 0 602.998 
0 0 0 0 0 
0 0 0 0 0 
0 0 0 0 0 
0 0 0 0 0 
0 0 0 0 0 
0 0 0 624.583 0 
0 0 0 0 0 
0 0 0 0 0 
0 0 0 0 0 
0 0 0 0 0 
0 0 0 0 603.155 
621.561 0 0 0 0 
0 0 612.99 0 0 
0 0 0 0 0 
0 0 0 0 0 
0 0 0 0 0 
0 0 0 0 0 
0 0 0 0 0 
0 0 0 0 0 
0 0 0 0 0 
0 0 0 0 0 
0 0 0 0 0 
660.723 687.463 647.845 0 0 
0 668.247 732.559 725.403 647.378 
0 0 0 0 0 
0 0 0 0 0 
0 0 0 0 0 
0 0 0 0 0 
0 0 0 0 0 
0 0 0 0 0 
0 0 0 0 0 
0 0 0 0 0 
0 0 0 0 0 
611.725 712.997 744.186 698.467 628.173 
0 652.831 749.846 817.357 795.577 
693.778 0 0 0 0 
0 0 0 0 0 
0 0 0 0 0 
0 0 0 0 0 
0 0 0 0 0 
0 0 0 0 0 